LAMMPS data file via write_data, version 3 Mar 2020, timestep = 6000000

1043 atoms
6 atom types
699 bonds
4 bond types
367 angles
5 angle types
9 dihedrals
1 dihedral types

6.5889014527188472e-01 2.2341109854722610e+01 xlo xhi
6.5889014527188472e-01 2.2341109854722610e+01 ylo yhi
6.5889014527188472e-01 2.2341109854722610e+01 zlo zhi

Masses

1 15.999
2 1.008
3 15.999
4 14.007
5 12.011
6 1.098

Pair Coeffs # lj/cut/coul/long

1 0.15535 3.166
2 0 0
3 0.1526 3.266
4 0.2 2.926
5 0.0676 3.041
6 0.0185 1.775

Bond Coeffs # harmonic

1 553 1
2 342.58 1.407
3 256.17 1.506
4 590.96 1.082

Angle Coeffs # harmonic

1 55 109.47
2 60.94 109.99
3 49.94 108.07
4 137.69 108.16
5 54.88 108.25

Dihedral Coeffs # charmm

1 0.27 3 0 0

Atoms # full

4 2 1 -8.4760000000000002e-01 7.8301221538949379e+00 1.0643284852454650e+01 4.8822290474994512e+00 -2 3 -5
250 84 1 -8.4760000000000002e-01 2.7652486849085731e+00 7.9763311235783139e+00 2.9720754790629949e+00 -7 -4 5
480 160 2 4.2380000000000001e-01 7.7360022591089637e+00 3.5999503013726013e+00 4.5817080038941880e+00 3 4 -1
1041 344 6 1.1000000000000000e-01 5.0561016379822776e+00 6.6042123097143346e-01 4.8413997110819942e+00 1 -2 0
131 44 2 4.2380000000000001e-01 9.1454072336603751e+00 7.1077299523905184e+00 3.4600766242250582e+00 7 -2 15
1015 339 1 -8.4760000000000002e-01 6.7199612558763215e+00 8.9813029581561370e+00 3.2536300256351809e+00 -7 -5 1
65 22 2 4.2380000000000001e-01 5.1430168974532089e+00 3.2311117551610606e+00 2.2974081883388253e+00 -4 2 -2
812 271 2 4.2380000000000001e-01 8.7400323973976661e+00 4.7951563968422155e+00 3.1928332890135724e+00 8 -5 3
461 154 2 4.2380000000000001e-01 1.0344839421471756e+01 7.2754831082438072e+00 1.2639382615442776e+00 4 -2 2
910 304 1 -8.4760000000000002e-01 9.6357451530233025e+00 8.7248785434295097e+00 2.1468474544856262e+00 -1 8 2
746 249 2 4.2380000000000001e-01 5.7770929750969424e+00 6.4381987711491169e+00 1.9099340209337359e+00 -4 4 -3
130 44 1 -8.4760000000000002e-01 9.1265489972492091e+00 6.2822616126097071e+00 4.0242095954705182e+00 7 -2 15
1022 341 2 4.2380000000000001e-01 3.3885478023754918e+00 4.4180629469574049e+00 3.4376751626989650e+00 1 -5 -3
639 213 2 4.2380000000000001e-01 3.9534100307941671e+00 1.0937423548303974e+01 3.5093291909247255e+00 8 -11 -1
911 304 2 4.2380000000000001e-01 9.5899913552107297e+00 9.2831126187618658e+00 2.9752684103672982e+00 -1 8 2
409 137 1 -8.4760000000000002e-01 5.5636901972460873e+00 6.1417205700981743e+00 4.6960230353743420e+00 1 -10 7
745 249 1 -8.4760000000000002e-01 6.7465938533183749e+00 6.6540474620842822e+00 2.0260274112817576e+00 -4 4 -3
64 22 1 -8.4760000000000002e-01 5.7461934489362578e+00 2.6096648252475214e+00 1.7974264534191964e+00 -4 2 -2
637 213 1 -8.4760000000000002e-01 4.1003007975815686e+00 1.0269228053234453e+01 2.7799878059501002e+00 8 -11 -1
813 271 2 4.2380000000000001e-01 8.9760475014226735e+00 3.6696327586696524e+00 2.0334715555742973e+00 8 -5 3
124 42 1 -8.4760000000000002e-01 1.0242307602993366e+00 3.8615043328922098e+00 1.7722129185109405e+00 4 -1 4
1016 339 2 4.2380000000000001e-01 6.8297478853570190e+00 8.1225803338692657e+00 2.7530882335169191e+00 -7 -5 1
251 84 2 4.2380000000000001e-01 3.1980535553995244e+00 8.8773806452809012e+00 2.9439754134547638e+00 -7 -4 5
1023 341 2 4.2380000000000001e-01 4.2379714072753014e+00 3.3933485464943574e+00 4.3837544175300804e+00 1 -5 -3
899 300 2 4.2380000000000001e-01 9.8775533964875901e+00 8.7937796582490380e-01 2.3997140374373780e+00 6 -2 0
1017 339 2 4.2380000000000001e-01 5.7694909563032226e+00 9.2853994706093133e+00 3.1893585980182966e+00 -7 -5 1
755 252 2 4.2380000000000001e-01 1.2207732811543877e+00 5.0913575246094398e+00 3.3948540421169970e+00 -5 -6 4
132 44 2 4.2380000000000001e-01 9.1969692375885170e+00 6.5361319038581005e+00 4.9888812604761581e+00 7 -2 15
912 304 2 4.2380000000000001e-01 9.1581428792493522e+00 9.1924676952074744e+00 1.4030354011270594e+00 -1 8 2
811 271 1 -8.4760000000000002e-01 8.2907491539118237e+00 4.1257049292105501e+00 2.6012428786479491e+00 8 -5 3
66 22 2 4.2380000000000001e-01 6.6953734183450555e+00 2.7834996189618395e+00 2.0597977200362978e+00 -4 2 -2
5 2 2 4.2380000000000001e-01 7.3394964068241046e+00 9.9155203893304815e+00 4.4030158507908403e+00 -2 3 -5
754 252 1 -8.4760000000000002e-01 2.1220885932995941e+00 5.3184936433891874e+00 3.7636908878511162e+00 -5 -6 4
900 300 2 4.2380000000000001e-01 1.1480807943550404e+01 9.0658129203308879e-01 2.0907461262361271e+00 6 -2 0
747 249 2 4.2380000000000001e-01 7.2988280868052202e+00 5.8694725164980852e+00 1.7441052586648305e+00 -4 4 -3
763 255 1 -8.4760000000000002e-01 1.0253565885672804e+01 9.5443687537450526e+00 4.8609558089504930e+00 1 5 6
638 213 2 4.2380000000000001e-01 4.4464388912512804e+00 1.0735258167251382e+01 1.9657365616349658e+00 8 -11 -1
756 252 2 4.2380000000000001e-01 2.4599219201165003e+00 6.1528061544413735e+00 3.3280397012968246e+00 -5 -6 4
1021 341 1 -8.4760000000000002e-01 4.2754394546958432e+00 3.9760173153813052e+00 3.5719090488543697e+00 1 -5 -3
411 137 2 4.2380000000000001e-01 5.1655447059225787e+00 5.2478199779208428e+00 4.4900553282098565e+00 1 -10 7
252 84 2 4.2380000000000001e-01 1.8603711006206780e+00 8.0278808560715103e+00 2.5495364734338848e+00 -7 -4 5
818 273 2 4.2380000000000001e-01 6.7361119911905591e+00 8.5854727679073459e+00 7.1055058006341643e-01 -5 -1 -10
126 42 2 4.2380000000000001e-01 1.5547395997403490e+00 3.1751287961602515e+00 2.2696555459455299e+00 4 -1 4
898 300 1 -8.4760000000000002e-01 1.0574130860945308e+01 1.1056422383588980e+00 1.7188434822080660e+00 6 -2 0
410 137 2 4.2380000000000001e-01 6.4530108681244540e+00 6.2222094143332995e+00 4.2458780996559833e+00 1 -10 7
497 166 2 4.2380000000000001e-01 3.6607143935261894e+00 6.9949924363556901e+00 1.6286161504608974e+00 3 8 -2
460 154 1 -8.4760000000000002e-01 1.0769354311206856e+01 6.4370340264480106e+00 9.2219277481387230e-01 4 -2 2
496 166 1 -8.4760000000000002e-01 4.1684105921535899e+00 6.8450817204805716e+00 7.8022232894844079e-01 3 8 -2
621 207 2 4.2380000000000001e-01 9.8359432220566063e+00 2.2891068008750257e+00 4.1622009008708538e+00 -6 -8 -4
765 255 2 4.2380000000000001e-01 1.0712853085681713e+01 8.7822393696165229e+00 4.4046511121118241e+00 1 5 6
619 207 1 -8.4760000000000002e-01 1.0565929108677862e+01 2.8656335608779773e+00 4.5292680075321821e+00 -6 -8 -4
609 203 2 4.2380000000000001e-01 8.1684996313095564e+00 7.0252781996135338e-01 4.5145880111421031e+00 1 -8 3
620 207 2 4.2380000000000001e-01 1.1206069754364721e+01 3.0992225432285707e+00 3.7973821392994034e+00 -6 -8 -4
607 203 1 -8.4760000000000002e-01 9.0564862685918079e+00 6.5941937824445718e-01 4.0567437420316610e+00 1 -8 3
848 283 2 4.2380000000000001e-01 1.0378095697789045e+00 7.4031856822207178e+00 8.0744728744496230e-01 6 5 -1
713 238 2 4.2380000000000001e-01 1.3640726408212289e+00 2.3373474791555915e+00 4.7026571667163832e+00 2 -5 4
792 264 2 4.2380000000000001e-01 9.5414036591920706e+00 1.7510052837626340e+00 8.4108988949546273e+00 4 2 -1
241 81 1 -8.4760000000000002e-01 6.3720576915328087e+00 9.9998772460439529e+00 7.8938398922007558e+00 -2 0 2
744 248 2 4.2380000000000001e-01 7.7657883963240453e+00 8.4338675968614396e-01 6.8354784103692703e+00 -4 4 -3
1036 344 6 1.1000000000000000e-01 4.5169883923499139e+00 1.8494932389527861e+00 7.9072920493600574e+00 1 -2 0
297 99 2 4.2380000000000001e-01 1.1375546791797541e+01 4.2888500794683546e+00 5.3940390785716508e+00 9 0 3
873 291 2 4.2380000000000001e-01 8.3923043532716974e+00 4.0085026588005945e+00 6.9348771885101170e+00 7 3 -1
209 70 2 4.2380000000000001e-01 9.5756835599570351e+00 1.0153835325033945e+01 8.6503674180767991e+00 -4 -2 -4
40 14 1 -8.4760000000000002e-01 1.6203691358439110e+00 4.1338028809373446e+00 8.9864517561683286e+00 4 -5 -4
210 70 2 4.2380000000000001e-01 8.0291379629040538e+00 1.0675101714799476e+01 8.7060771420232381e+00 -4 -2 -4
118 40 1 -8.4760000000000002e-01 7.0250563614801029e+00 7.4377345359816891e+00 8.9247387772950795e+00 4 -3 0
977 326 2 4.2380000000000001e-01 1.0597584127740717e+01 8.2661099540633902e+00 7.1542409478857349e+00 1 2 8
764 255 2 4.2380000000000001e-01 1.0911489849517311e+01 1.0278999488743921e+01 5.0266463961854226e+00 1 5 6
1030 344 3 -6.5000000000000002e-01 3.2522808965150354e+00 2.1784559034052964e+00 5.8387617860899468e+00 1 -2 0
984 328 2 4.2380000000000001e-01 3.2171345411400591e+00 1.0611654708113669e+01 7.4525709968115361e+00 -3 1 2
871 291 1 -8.4760000000000002e-01 8.6787236567027470e+00 4.3521911619141536e+00 7.8292161689993858e+00 7 3 -1
242 81 2 4.2380000000000001e-01 6.4478184495983513e+00 9.0244103444156956e+00 8.1005401973880033e+00 -2 0 2
32 11 2 4.2380000000000001e-01 2.4015400477599540e+00 8.3208460101623434e+00 7.9725912892654245e+00 -6 3 -3
293 98 2 4.2380000000000001e-01 4.2911642646400399e+00 7.9029858322165234e+00 6.9341837638556614e+00 0 5 -5
790 264 1 -8.4760000000000002e-01 8.6683216669867491e+00 1.3590574175396162e+00 8.7009070333582823e+00 4 2 -1
997 333 1 -8.4760000000000002e-01 1.9395968704126221e+00 5.3989093450842773e+00 6.6500427801935427e+00 8 2 0
343 115 1 -8.4760000000000002e-01 4.3340117028563414e+00 3.9177107450778306e+00 8.3888878133208813e+00 -6 2 0
479 160 2 4.2380000000000001e-01 6.8795966777138720e+00 2.6703716770388488e+00 5.6156708583331714e+00 3 4 -1
982 328 1 -8.4760000000000002e-01 3.6416076231710801e+00 9.9348537155367165e+00 6.8511040016844076e+00 -3 1 2
55 19 1 -8.4760000000000002e-01 1.0039035198746182e+01 6.5660701318085488e+00 6.6682881388567878e+00 -5 -15 -4
807 269 2 4.2380000000000001e-01 1.0039674328124486e+01 7.8047763152020719e+00 9.1281671344262723e+00 7 -10 3
1032 344 5 -2.6000000000000001e-01 4.5569883022300335e+00 9.0564895643848875e-01 7.3797679610688069e+00 1 -2 0
119 40 2 4.2380000000000001e-01 6.4985473888097438e+00 7.1022010370028354e+00 8.1435814581676578e+00 4 -3 0
243 81 2 4.2380000000000001e-01 7.0004611974363176e+00 1.0233130032836925e+01 7.1517469354107748e+00 -2 0 2
791 264 2 4.2380000000000001e-01 8.0050081606990862e+00 2.0932778909090253e+00 8.8455997121178882e+00 4 2 -1
1031 344 4 4.4000000000000000e-01 3.5526662939771985e+00 8.6835248655656649e-01 6.2547504927475757e+00 1 -2 0
983 328 2 4.2380000000000001e-01 4.6086336413747198e+00 9.8391309639170288e+00 7.0871075704645694e+00 -3 1 2
41 14 2 4.2380000000000001e-01 1.4439852472747940e+00 4.4427767127963920e+00 8.0518804863874696e+00 4 -5 -4
56 19 2 4.2380000000000001e-01 9.5072700207587140e+00 5.9169355736969846e+00 7.2122090988832319e+00 -5 -15 -4
57 19 2 4.2380000000000001e-01 1.0919086217149795e+01 6.1568010376176137e+00 6.4274377473117950e+00 -5 -15 -4
872 291 2 4.2380000000000001e-01 8.0059608367204529e+00 4.0861716707549656e+00 8.5195956519620513e+00 7 3 -1
292 98 1 -8.4760000000000002e-01 4.9534264565915693e+00 7.1570282329663817e+00 7.0045813839284650e+00 0 5 -5
508 170 1 -8.4760000000000002e-01 2.2858893231468151e+00 7.8873298763815844e+00 5.7815814038495859e+00 -2 -3 -2
998 333 2 4.2380000000000001e-01 1.6438177986072848e+00 4.9398986805913871e+00 5.8122932581334696e+00 8 2 0
294 98 2 4.2380000000000001e-01 5.1592462737363425e+00 6.8066982880667970e+00 6.0908488815980126e+00 0 5 -5
976 326 1 -8.4760000000000002e-01 1.0627782516187970e+01 8.9420051389307140e+00 7.8906203927786471e+00 1 2 8
387 129 2 4.2380000000000001e-01 5.9636518562776626e+00 3.5134306345729147e+00 8.8478265515217167e+00 2 2 -5
344 115 2 4.2380000000000001e-01 4.5190965135394698e+00 4.4159767788849456e+00 7.5418492252811262e+00 -6 2 0
783 261 2 4.2380000000000001e-01 1.0174561217779354e+01 4.6497760490892928e+00 8.5627128696896619e+00 5 -2 -1
510 170 2 4.2380000000000001e-01 2.7492812513604701e+00 8.7565874107195238e+00 5.9537996883318218e+00 -2 -3 -2
345 115 2 4.2380000000000001e-01 3.3458518491934965e+00 3.8310123703125400e+00 8.5154710400537255e+00 -6 2 0
47 16 2 4.2380000000000001e-01 1.1122827502610569e+01 2.0206821454242427e+00 5.9888755995879546e+00 -2 -11 -2
31 11 1 -8.4760000000000002e-01 2.4244595085735168e+00 8.0466371866949462e+00 8.9339883949345698e+00 -6 3 -3
1038 344 6 1.1000000000000000e-01 1.7206948658182692e+00 8.8758056507972649e-01 7.3819622861081475e+00 1 -2 0
478 160 1 -8.4760000000000002e-01 7.4450406359554675e+00 3.4909248043392482e+00 5.5322104369211544e+00 3 4 -1
999 333 2 4.2380000000000001e-01 2.2330552608672467e+00 6.3301628665660727e+00 6.4340575363280639e+00 8 2 0
46 16 1 -8.4760000000000002e-01 1.1470871865404348e+01 1.5687864787551342e+00 6.8102495773208753e+00 -2 -11 -2
208 70 1 -8.4760000000000002e-01 8.9155007577265977e+00 1.0697595204058388e+01 9.1685213705113018e+00 -4 -2 -4
1037 344 6 1.1000000000000000e-01 5.5903326321370788e+00 8.6120404201905743e-01 7.0620451157502622e+00 1 -2 0
781 261 1 -8.4760000000000002e-01 1.1032445966166923e+01 4.7264561083383043e+00 9.0707995127790433e+00 5 -2 -1
896 299 2 4.2380000000000001e-01 3.0566550402489532e+00 1.1173369521149420e+01 9.3044569303863813e+00 -1 9 4
509 170 2 4.2380000000000001e-01 2.7316323094000650e+00 7.4171832137452736e+00 5.0198239273390097e+00 -2 -3 -2
6 2 2 4.2380000000000001e-01 8.7316301501266302e+00 1.0310977958665644e+01 5.1594567488253098e+00 -2 3 -5
573 191 2 4.2380000000000001e-01 5.6416357626942908e+00 7.6097964031372110e+00 1.2758791731991270e+01 1 4 -2
752 251 2 4.2380000000000001e-01 7.4613349370720119e+00 4.5051352905577957e+00 1.2095100460405984e+01 -4 -3 0
95 32 2 4.2380000000000001e-01 3.5392448065952031e+00 1.7446777406972658e+00 9.8422242559262667e+00 -1 5 2
806 269 2 4.2380000000000001e-01 8.4785595118659316e+00 7.3807504551537040e+00 9.3512117590522159e+00 7 -10 3
42 14 2 4.2380000000000001e-01 1.5528368825468313e+00 4.9105444134095233e+00 9.6126401721524157e+00 4 -5 -4
352 118 1 -8.4760000000000002e-01 8.6950427905105201e+00 7.8244524910006712e+00 1.2126004545743319e+01 3 3 7
548 183 2 4.2380000000000001e-01 8.8584357926140811e+00 5.0396420082644227e+00 1.3333658223689962e+01 4 1 4
571 191 1 -8.4760000000000002e-01 5.9727890565033777e+00 7.8031754432682590e+00 1.1835243297538323e+01 1 4 -2
339 113 2 4.2380000000000001e-01 3.5421831157108978e+00 9.7218315142785396e+00 1.2548258406668579e+01 5 0 1
418 140 1 -8.4760000000000002e-01 1.2941248323907490e+00 6.3741833578889304e+00 1.0586751647637813e+01 5 -6 2
572 191 2 4.2380000000000001e-01 5.4510240722105712e+00 8.5624018141101068e+00 1.1446223257054813e+01 1 4 -2
805 269 1 -8.4760000000000002e-01 9.4077798988155248e+00 7.2929056627758317e+00 9.7101446358268824e+00 7 -10 3
353 118 2 4.2380000000000001e-01 7.7207531539595164e+00 8.0363911367668184e+00 1.2049575258969467e+01 3 3 7
751 251 1 -8.4760000000000002e-01 6.5354090652555010e+00 4.8238514034121716e+00 1.1892413159478318e+01 -4 -3 0
600 200 2 4.2380000000000001e-01 8.1485378325371300e+00 1.1389474620157884e+01 1.2413510453437906e+01 -1 0 3
923 308 2 4.2380000000000001e-01 8.8913911345239729e+00 9.2807328709973547e+00 1.3142623451501644e+01 -1 -3 12
187 63 1 -8.4760000000000002e-01 2.0155863078653700e+00 8.8719740803158089e+00 1.3274194459554360e+01 -1 5 -2
354 118 2 4.2380000000000001e-01 9.0555890813750146e+00 7.5841941572970093e+00 1.1224737627907835e+01 3 3 7
337 113 1 -8.4760000000000002e-01 4.2234048626269551e+00 1.0213829991820370e+01 1.2006156534553666e+01 5 0 1
299 100 2 4.2380000000000001e-01 2.6973824757488729e+00 3.2926369054470088e+00 1.3011690688538598e+01 3 3 7
137 46 2 4.2380000000000001e-01 3.7887144099430858e+00 3.0281377902563404e+00 1.1519223958064261e+01 0 -1 6
671 224 2 4.2380000000000001e-01 4.6360188029289100e+00 1.1306642440192253e+01 1.3465724280168430e+01 -3 -1 3
120 40 2 4.2380000000000001e-01 6.5688739615285909e+00 7.1706830488882085e+00 9.7736093704664384e+00 4 -3 0
338 113 2 4.2380000000000001e-01 3.8032779267061230e+00 1.0539908932049240e+01 1.1159300148428718e+01 5 0 1
419 140 2 4.2380000000000001e-01 1.6287687081325317e+00 6.8554985460276079e+00 9.7765978947170264e+00 5 -6 2
94 32 1 -8.4760000000000002e-01 3.2084664856421496e+00 1.2313281248124750e+00 1.0634093999344655e+01 -1 5 2
655 219 1 -8.4760000000000002e-01 3.0960669917218744e+00 6.1990652125076213e+00 1.3079002990141898e+01 0 3 2
138 46 2 4.2380000000000001e-01 4.7696043302846745e+00 4.3294743576985244e+00 1.1624127225064809e+01 0 -1 6
753 251 2 4.2380000000000001e-01 6.5691310895906270e+00 5.7775455003482135e+00 1.1593531321993677e+01 -4 -3 0
264 88 2 4.2380000000000001e-01 9.3608265208253307e+00 3.2202008519100946e+00 1.3162829301802857e+01 -5 4 3
263 88 2 4.2380000000000001e-01 9.8134354459695992e+00 3.6508421940300253e+00 1.1654081679588495e+01 -5 4 3
386 129 2 4.2380000000000001e-01 6.7823730295610192e+00 3.9478246620156399e+00 1.0192305507324889e+01 2 2 -5
96 32 2 4.2380000000000001e-01 2.2504314755516854e+00 9.8177816673489671e-01 1.0493047302844877e+01 -1 5 2
262 88 1 -8.4760000000000002e-01 9.1051282164406029e+00 3.7485121333453382e+00 1.2353196449405122e+01 -5 4 3
656 219 2 4.2380000000000001e-01 3.2465537382625658e+00 5.2973309405213618e+00 1.2673751186439613e+01 0 3 2
922 308 1 -8.4760000000000002e-01 8.6609676845584307e+00 1.0152454530632157e+01 1.3575066495434941e+01 -1 -3 12
420 140 2 4.2380000000000001e-01 1.9375420271297596e+00 6.5041468139895269e+00 1.1341154513662657e+01 5 -6 2
188 63 2 4.2380000000000001e-01 1.0167069104044759e+00 8.8312958078923725e+00 1.3298406094074029e+01 -1 5 -2
136 46 1 -8.4760000000000002e-01 3.9547192043294084e+00 3.8887762699589570e+00 1.2000622138167151e+01 0 -1 6
385 129 1 -8.4760000000000002e-01 6.8250882397373402e+00 3.4163292574973347e+00 9.3463225126146554e+00 2 2 -5
897 299 2 4.2380000000000001e-01 1.8277013262081789e+00 1.1247329848196443e+01 1.0377223695357211e+01 -1 9 4
443 148 2 4.2380000000000001e-01 1.0063656545177954e+01 1.1199591958043293e+00 1.2862058476385220e+01 -4 4 3
895 299 1 -8.4760000000000002e-01 2.5341302956704159e+00 1.0658686535705302e+01 9.9842136771124324e+00 -1 9 4
599 200 2 4.2380000000000001e-01 8.0497537442492408e+00 1.1295711114363341e+01 1.0786219365778599e+01 -1 0 3
189 63 2 4.2380000000000001e-01 2.3909072136344314e+00 7.9658999271378743e+00 1.3469550632399809e+01 -1 5 -2
300 100 2 4.2380000000000001e-01 1.2570489213293961e+00 2.5545783860772562e+00 1.3229257871855220e+01 3 3 7
549 183 2 4.2380000000000001e-01 8.8544751784413247e+00 6.6680876348264642e+00 1.3455212779921908e+01 4 1 4
444 148 2 4.2380000000000001e-01 1.0089490471922639e+01 1.1059747082810532e+00 1.1229341761938814e+01 -4 4 3
298 100 1 -8.4760000000000002e-01 2.1385980321410085e+00 2.7652719172570075e+00 1.3651726998159642e+01 3 3 7
33 11 2 4.2380000000000001e-01 2.3127162064524276e+00 8.8538467610081675e+00 9.5135803210458771e+00 -6 3 -3
782 261 2 4.2380000000000001e-01 1.0877159207460473e+01 5.2468790433991970e+00 9.9104696090680306e+00 5 -2 -1
381 127 2 4.2380000000000001e-01 7.0052722408942110e+00 3.8170548812699012e+00 1.7450325478217870e+01 8 3 -11
672 224 2 4.2380000000000001e-01 5.0053639239078409e+00 1.0640105467684256e+01 1.4910002201127343e+01 -3 -1 3
725 242 2 4.2380000000000001e-01 1.8941124785316130e+00 6.0580246801002167e+00 1.4681413414023394e+01 -4 -7 -6
569 190 2 4.2380000000000001e-01 7.9102331129428860e+00 8.1416280998919852e+00 1.7155002135899959e+01 7 -3 5
499 167 1 -8.4760000000000002e-01 8.1739549895548560e+00 7.8525751622871387e-01 1.5353481266535319e+01 4 -2 12
964 322 1 -8.4760000000000002e-01 1.0772564844225831e+01 3.8096201436920332e+00 1.7369529232604332e+01 4 -5 -1
215 72 2 4.2380000000000001e-01 3.0998539354580705e+00 1.2020596224389433e+00 1.3903667750712753e+01 1 6 0
104 35 2 4.2380000000000001e-01 4.8210711875345122e+00 7.9834269207652095e+00 1.4848100453324030e+01 4 -3 -2
1003 335 1 -8.4760000000000002e-01 5.0645008424335725e+00 3.8589554124662482e+00 1.4948492060811379e+01 0 7 -10
103 35 1 -8.4760000000000002e-01 5.1141826598852163e+00 7.1383262120263531e+00 1.4401008453156530e+01 4 -3 -2
376 126 1 -8.4760000000000002e-01 2.2247492763773451e+00 2.8664644769364007e+00 1.6691922251373214e+01 -6 -7 1
1007 336 2 4.2380000000000001e-01 7.4722099479838917e+00 5.9357075840324356e+00 1.7406754065180390e+01 -3 1 -8
258 86 2 4.2380000000000001e-01 9.7651873903087303e+00 6.7191696324551442e+00 1.4966284332923925e+01 6 3 -2
182 61 2 4.2380000000000001e-01 2.5705460675995142e+00 4.0808357565540438e+00 1.7860522493532688e+01 2 0 -4
111 37 2 4.2380000000000001e-01 4.9964157798409570e+00 9.1604090685335962e+00 1.7122672899763916e+01 -3 5 1
635 212 2 4.2380000000000001e-01 1.0791723574074277e+01 6.7317354272441721e+00 1.7056820750272387e+01 -5 -7 6
501 167 2 4.2380000000000001e-01 7.3059568764801570e+00 1.0983584500655375e+00 1.5738898115517291e+01 4 -2 12
568 190 1 -8.4760000000000002e-01 8.0871475699265822e+00 9.0331214836998388e+00 1.6737938699403358e+01 7 -3 5
432 144 2 4.2380000000000001e-01 4.9052198718145039e+00 8.8991462083720618e-01 1.5431024378184517e+01 4 1 -3
796 266 1 -8.4760000000000002e-01 1.0372494590324965e+01 2.0703394174222520e+00 1.4299178799541785e+01 2 -1 -2
110 37 2 4.2380000000000001e-01 6.4122705106290301e+00 9.4075940031452170e+00 1.6347508370232060e+01 -3 5 1
105 35 2 4.2380000000000001e-01 5.5485119510247483e+00 6.5388759807571946e+00 1.5073331338357468e+01 4 -3 -2
431 144 2 4.2380000000000001e-01 5.2124431112432283e+00 1.4363971436521625e+00 1.6938869557647966e+01 4 1 -3
430 144 1 -8.4760000000000002e-01 5.5387955504382651e+00 1.4208801459981515e+00 1.5993748279402753e+01 4 1 -3
256 86 1 -8.4760000000000002e-01 1.0551218687281015e+01 7.1421658906274681e+00 1.5417093946869668e+01 6 3 -2
924 308 2 4.2380000000000001e-01 9.0901176903786336e+00 1.0200821141090461e+01 1.4477004258370822e+01 -1 -3 12
257 86 2 4.2380000000000001e-01 1.1290147972280748e+01 7.2634013217096536e+00 1.4754306935144914e+01 6 3 -2
726 242 2 4.2380000000000001e-01 2.4335693149465722e+00 6.0255218395159345e+00 1.6222372795072200e+01 -4 -7 -6
109 37 1 -8.4760000000000002e-01 5.4166785100995334e+00 9.4365823942815990e+00 1.6258319077370967e+01 -3 5 1
670 224 1 -8.4760000000000002e-01 4.7228557181730064e+00 1.1480087320446820e+01 1.4446732044794221e+01 -3 -1 3
68 23 2 4.2380000000000001e-01 1.3532721891004229e+00 8.8531917597162870e+00 1.7706351531706957e+01 2 3 0
705 235 2 4.2380000000000001e-01 1.0857197813001104e+01 1.0311285890136570e+01 1.6553559199525395e+01 4 -5 -2
378 126 2 4.2380000000000001e-01 2.3309078296482828e+00 2.8724058519790425e+00 1.5697590582146086e+01 -6 -7 1
377 126 2 4.2380000000000001e-01 2.9440820557010565e+00 2.3047153464355836e+00 1.7100577383960907e+01 -6 -7 1
798 266 2 4.2380000000000001e-01 9.7660807120946380e+00 1.7179042853890376e+00 1.5011956918161534e+01 2 -1 -2
1004 335 2 4.2380000000000001e-01 4.8294142456513898e+00 3.8049056613407415e+00 1.3978021671712241e+01 0 7 -10
547 183 1 -8.4760000000000002e-01 8.6792118726695797e+00 5.8125342426112354e+00 1.3942358661916089e+01 4 1 4
69 23 2 4.2380000000000001e-01 8.6761711344963810e-01 7.7362776178806740e+00 1.6618570614001385e+01 2 3 0
965 322 2 4.2380000000000001e-01 1.0686525002911043e+01 4.7596807227820372e+00 1.7669498666329609e+01 4 -5 -1
454 152 1 -8.4760000000000002e-01 6.9670452726188428e+00 5.3243314374271424e+00 1.5944287277526529e+01 -6 5 5
1005 335 2 4.2380000000000001e-01 5.2272364341485007e+00 2.9384769032922051e+00 1.5303791319036080e+01 0 7 -10
108 36 2 4.2380000000000001e-01 8.7509339596799129e-01 1.1433597813676460e+01 1.4501264884232976e+01 9 5 4
797 266 2 4.2380000000000001e-01 1.1273298322301221e+01 2.2580376693064723e+00 1.4690742896444707e+01 2 -1 -2
455 152 2 4.2380000000000001e-01 7.5452271153008530e+00 5.4237551698657729e+00 1.5134459796881636e+01 -6 5 5
456 152 2 4.2380000000000001e-01 6.2373564659498264e+00 4.6674863270811278e+00 1.5754264836795857e+01 -6 5 5
724 242 1 -8.4760000000000002e-01 1.7655513614543921e+00 6.4327964352708138e+00 1.5599573700695652e+01 -4 -7 -6
703 235 1 -8.4760000000000002e-01 1.0281218526255506e+01 1.0580905980155793e+01 1.5781838206931013e+01 4 -5 -2
570 190 2 4.2380000000000001e-01 8.9863399389679373e+00 9.0239065552263131e+00 1.6300481949110253e+01 7 -3 5
634 212 1 -8.4760000000000002e-01 1.0528511368710967e+01 6.2793874214581509e+00 1.7908936134846602e+01 -5 -7 6
657 219 2 4.2380000000000001e-01 3.8575248347718678e+00 6.4222774904631583e+00 1.3687573634572329e+01 0 3 2
512 171 2 4.2380000000000001e-01 3.2356079482886768e+00 9.7329413075899467e+00 1.9062614549657255e+01 8 -5 7
543 181 2 4.2380000000000001e-01 5.1859868196282335e+00 4.1673876097926952e+00 2.0949458619953425e+01 -6 0 1
575 192 2 4.2380000000000001e-01 9.9122390977120016e+00 3.6896153280126205e+00 1.8928970113175733e+01 -7 -6 0
652 218 1 -8.4760000000000002e-01 3.8771538982458869e+00 1.0364593627077518e+01 2.0559777853462624e+01 2 -7 3
541 181 1 -8.4760000000000002e-01 6.1752049799191013e+00 4.1292222139727155e+00 2.0808069745971956e+01 -6 0 1
240 80 2 4.2380000000000001e-01 1.0548656765443113e+01 1.5805115938409142e+00 1.8292307265817080e+01 0 -2 3
817 273 1 -8.4760000000000002e-01 6.1347916376512996e+00 9.0737858493522001e+00 2.1760342714644647e+01 -5 -1 -11
13 5 1 -8.4760000000000002e-01 8.7523461854518079e+00 1.0062944529094304e+01 2.1789229157276772e+01 9 -2 0
230 77 2 4.2380000000000001e-01 2.5691588724203696e+00 1.0821408527745255e+00 2.1927270858419089e+01 -1 0 -10
819 273 2 4.2380000000000001e-01 6.6675080016627239e+00 9.4022030799734928e+00 2.0980371091604635e+01 -5 -1 -11
498 166 2 4.2380000000000001e-01 4.3078279707386082e+00 7.7198673118102858e+00 2.1998423377885960e+01 3 8 -3
133 45 1 -8.4760000000000002e-01 4.0366721410916151e+00 1.9302341709017561e+00 2.1274967999294514e+01 5 0 1
183 61 2 4.2380000000000001e-01 2.7227019205716294e+00 4.1122556324481581e+00 1.9486095569114372e+01 2 0 -4
186 62 2 4.2380000000000001e-01 1.2785771714407781e+00 1.0996166685855922e+01 2.0980599722640324e+01 -3 -11 6
86 29 2 4.2380000000000001e-01 1.1275244870934525e+01 9.8181679326208027e+00 1.8736556521331050e+01 -1 4 -10
462 154 2 4.2380000000000001e-01 1.0085768258851925e+01 5.8906180522496578e+00 2.2120532814863402e+01 4 -2 1
829 277 1 -8.4760000000000002e-01 3.7283219864116335e+00 1.4116024416000630e+00 1.8396857907695093e+01 8 -6 4
830 277 2 4.2380000000000001e-01 4.0531572133790670e+00 1.5443856873441892e+00 1.9333260894145692e+01 8 -6 4
380 127 2 4.2380000000000001e-01 6.7528639652242699e+00 2.5294307478349722e+00 1.8422405645819044e+01 8 3 -11
206 69 2 4.2380000000000001e-01 6.0404283721196039e+00 7.4949636193893783e+00 2.0876629463516053e+01 -7 -2 1
238 80 1 -8.4760000000000002e-01 1.0885455334876267e+01 6.9725319412551268e-01 1.8618530259185871e+01 0 -2 3
379 127 1 -8.4760000000000002e-01 6.6373032372883420e+00 3.5185102555691716e+00 1.8330932923426609e+01 8 3 -11
1008 336 2 4.2380000000000001e-01 7.2590836948511788e+00 6.8117291588056847e+00 1.8768293520445123e+01 -3 1 -8
576 192 2 4.2380000000000001e-01 9.0914037055148000e+00 2.4641559343532649e+00 1.9629759043746880e+01 -7 -6 0
58 20 1 -8.4760000000000002e-01 7.5323842078387102e+00 1.0310456428136279e+00 1.8774526608016902e+01 -4 -1 -6
511 171 1 -8.4760000000000002e-01 2.8804901923397614e+00 9.3322105314258721e+00 1.8218039575511810e+01 8 -5 7
335 112 2 4.2380000000000001e-01 9.2187022541760548e+00 4.9011377322582979e+00 2.0850972807863364e+01 2 7 -3
934 312 1 -8.4760000000000002e-01 1.6032951291179189e+00 7.7527973306762021e+00 2.0690732761311679e+01 -3 1 4
542 181 2 4.2380000000000001e-01 6.3675026287330887e+00 3.9630121064397814e+00 1.9840911220789586e+01 -6 0 1
940 314 1 -8.4760000000000002e-01 3.0719262943855856e+00 4.3640418492620476e+00 2.1806495178995199e+01 -4 9 0
190 64 1 -8.4760000000000002e-01 8.5684304587679847e+00 1.0524739245444019e+01 1.8971156452898789e+01 -5 3 0
205 69 1 -8.4760000000000002e-01 5.8747378143870392e+00 6.8896533247664209e+00 2.0098075360880578e+01 -7 -2 1
935 312 2 4.2380000000000001e-01 2.2415717074309640e+00 8.1511902941964589e+00 2.0032032406837789e+01 -3 1 4
654 218 2 4.2380000000000001e-01 4.6198554875680813e+00 1.0001165119036184e+01 2.1122195765619139e+01 2 -7 3
334 112 1 -8.4760000000000002e-01 8.5350841268561659e+00 5.2934462149980490e+00 2.1466407591405336e+01 2 7 -3
336 112 2 4.2380000000000001e-01 7.6351033070483885e+00 4.9154475487432920e+00 2.1249263546929040e+01 2 7 -3
14 5 2 4.2380000000000001e-01 8.9259341053257284e+00 1.0093556761583045e+01 2.0804886766842390e+01 9 -2 0
653 218 2 4.2380000000000001e-01 4.1129572647544999e+00 1.1286106757425065e+01 2.0251216458229965e+01 2 -7 3
135 45 2 4.2380000000000001e-01 3.4274633066561142e+00 2.6915364576264698e+00 2.1496966210329404e+01 5 0 1
60 20 2 4.2380000000000001e-01 7.2073532827485014e+00 7.7947473553470514e-01 1.9686155260816783e+01 -4 -1 -6
942 314 2 4.2380000000000001e-01 3.4794173755689481e+00 5.2270088849988214e+00 2.2105223156348764e+01 -4 9 0
181 61 1 -8.4760000000000002e-01 2.7896899513438549e+00 4.6553750356654762e+00 1.8649116544299737e+01 2 0 -4
207 69 2 4.2380000000000001e-01 5.9642131126750408e+00 5.9377206783045606e+00 2.0391024464287181e+01 -7 -2 1
574 192 1 -8.4760000000000002e-01 9.6076497415823869e+00 3.3035643725367176e+00 1.9799711613225430e+01 -7 -6 0
305 102 2 4.2380000000000001e-01 4.6985429697511751e+00 6.9824912537467982e+00 1.8787490776691964e+01 4 1 3
636 212 2 4.2380000000000001e-01 9.5645404087626744e+00 6.4640779305358267e+00 1.8100375905840188e+01 -5 -7 6
366 122 2 4.2380000000000001e-01 7.1053762846658786e-01 5.2995029302041567e+00 1.8669212689934600e+01 -5 -1 -6
369 123 2 4.2380000000000001e-01 6.5453835043901281e+00 8.6177502010359963e-01 2.2052885543123178e+01 -1 -4 7
936 312 2 4.2380000000000001e-01 1.1117696176789440e+00 6.9947786154503389e+00 2.0262001095239892e+01 -3 1 4
15 5 2 4.2380000000000001e-01 8.4136329164515153e+00 1.0952495982220420e+01 2.2095776848608978e+01 9 -2 0
513 171 2 4.2380000000000001e-01 3.2809588889683723e+00 8.4255829151373476e+00 1.8085176317055154e+01 8 -5 7
1006 336 1 -8.4760000000000002e-01 7.9097379980748208e+00 6.5633281849581353e+00 1.8050696300958879e+01 -3 1 -8
134 45 2 4.2380000000000001e-01 4.7630375500238404e+00 1.8739185609828879e+00 2.1959965677147871e+01 5 0 1